# vtk DataFile Version 2.0
Unstructured grid legacy vtk file with point scalar data
ASCII

DATASET UNSTRUCTURED_GRID
POINTS 2714 double 
49.02309246802656 59.621685735059394 82.02210944707217
44.72244441916405 42.27750107349664 11.420503811432907
21.955554843809754 87.92564787853779 32.62758265753933
38.76684232411032 90.4587850275192 49.25661960820431
13.441288255613328 56.14604695326985 32.653801619045275
88.90191362901611 11.053151697086273 14.330606230616873
23.56255845590033 30.096189664257523 71.23384620334575
74.16213065876308 10.63984889835015 13.163545760670358
92.27151892135126 17.22064785955151 81.07561556759092
53.63488649960457 68.39813357840124 65.21966333170867
84.22278163107683 84.0335817232456 32.882301511611956
24.273076468753988 25.63141030967809 35.080966499336824
37.46616652461246 80.34030770660618 90.23946945504682
57.310350927567306 40.78802499530388 79.32553564847125
43.657284256459555 80.5897902060967 10.426025745031335
7.26932235598986 47.12608936235539 65.52783056695175
74.7297012959893 54.24578678955875 9.742868505964582
81.0696718785785 85.29461154193362 13.23235402705692
25.035474891311416 61.17042305124791 9.311893846128228
49.93604065500669 6.890149666577811 68.97162872533941
92.31210649581918 90.93725641603704 63.18265459245738
93.00711056001148 62.58250622014816 34.23046060594075
87.20079287242805 24.681568077155475 7.969799900601377
45.13620523612195 52.533272994651924 88.18245283782319
66.14793473244934 90.9347476359136 7.211082939449452
73.2378830261665 18.472922929972995 68.4215724019034
47.35636099793604 63.337806761076465 9.744245200482093
62.42307239660189 82.04532280388933 33.10531642649123
61.05354129011252 27.363767203341652 61.33984883373116
6.728311936100699 43.879848131522635 33.352181347309724
26.728670417353143 42.632932199983784 45.53920560318435
37.55755218547096 6.617982996809864 69.8717354972307
7.608702418275114 79.80456913122318 62.197537479246215
44.93559041203084 32.3707979000753 19.74704428084254
78.88540993013626 52.199511068036735 59.55483008888698
89.54659733606991 89.59082823483573 75.07287470183303
13.301838847404742 20.999613670157512 62.20776132350819
49.812596806932746 17.244590870247507 28.353784474037983
16.018706887419143 37.48102713819966 52.20413798828653
65.47491253004983 62.37378809243281 47.94685886035905
63.42748341420602 10.321558758839922 22.938047509461647
35.99312522267637 81.37194798924942 80.61945731426414
92.51193193653214 45.584747340673545 47.04981058882216
61.89091984349633 36.1352421286707 48.626566258783804
61.17965726856489 88.30027182688741 15.172244831334796
80.86785973162934 41.706406619095596 59.375701796578795
85.3996419028998 70.7445234589277 75.67608499003326
7.320013414078231 19.276739325856013 34.71071306415931
14.771924145461915 66.08929904425588 62.46571593119103
84.29572926174392 28.679142472372316 91.30557760812354
91.6380350714872 50.18696394430091 12.39161395121888
28.724227810587013 8.754463852313167 18.981253646952172
34.4193615363343 60.45861693239551 48.34078947097729
85.78214644608623 36.60982715788096 23.372249909157592
6.265308800058745 74.90447493175138 20.99909972137316
5.979801813892034 9.494228351909651 32.95586264595418
7.819730569173008 33.25576193919042 38.48619798560746
19.05247641649668 11.960069648032668 81.60490491073494
77.51783544644758 50.680259615396906 46.68141541460874
13.962609151472874 24.19879962997543 51.378219504772694
69.93661871227586 89.23347792257827 31.126266306809434
54.30775421546466 87.71569424571982 92.24531611079337
7.2073475295745695 40.35927960981251 88.03795119334883
64.5778704366338 11.495914605516797 36.0655006737783
19.203229650519226 61.308075126133424 74.94348951894226
35.04247598454285 15.240512233797315 27.979600730795376
27.757310059897115 7.3749957022971415 10.364791386357425
72.9420969078135 80.62615991955276 32.621815802539416
36.66327559392617 59.74609541137394 63.35853832685298
15.399782276698154 15.956882850242376 20.426528094298863
28.188636761021144 77.3555601543853 45.37345348786262
61.06515944472877 91.8977786613918 82.70858143737418
88.52067800812377 37.90475690773558 11.143872543018869
45.30967782472705 51.02504115144992 24.680944496477814
49.5565606075027 89.63027823108273 42.02793172535376
67.09575153795538 73.33526148170111 58.816883682465786
31.536129923676565 88.92003237524365 9.271252010729262
91.30402798194753 19.69054605338664 14.96230468244495
12.77742553696862 75.87041893050474 55.49383313899027
88.63194754411137 7.616814696314097 91.29626576538561
7.507014073124787 12.682233377163277 10.30561433705772
7.761012528310312 36.45543026677049 60.1140385046233
41.123888082707005 24.115166240620262 24.648781567363205
13.63583272248232 42.89919968569689 13.004049204018287
41.13594680325646 72.57411369811167 20.584238091440866
11.59572430195403 76.83567411566938 78.1758159053312
43.11419806695378 17.10513324060905 42.990882980717274
75.9340211418214 8.83498839837535 69.028776522607
9.98863743491044 75.1704781285835 91.46278017142043
80.8152933245848 22.786344038963918 52.600068849302886
91.0921367899845 65.03730949574117 46.32248969760358
88.49733459320016 35.66116370824524 70.57803363211704
67.87403551039094 86.95570369780579 64.45431667111048
44.52107203990121 60.90911124718496 21.39195259204208
94.05954417446524 56.90441057668362 74.33535608601753
15.325101580488653 6.88802402655282 46.52885919885562
22.75464032776054 37.25973339324302 87.57282085286289
73.48614865645713 63.09111298103372 90.2166528868282
14.953799834093232 86.29018387140052 91.34785849805695
77.93540324399788 72.09958830279132 22.544331570085973
38.7069168101906 68.33039969965762 77.16022155992673
11.497776920963435 46.43148488245446 79.46685044347119
7.3737949925032495 30.673366086112466 48.45273962926341
60.539760970992 62.32853604283912 33.95745080818193
16.542441969796077 6.996850720995816 16.572054573892274
27.106692150885557 25.065368544412046 78.46371706518313
11.106036461863988 15.786984569369206 74.4591218195881
27.723955476704823 28.471933800198393 43.228477374419775
26.358056945048627 26.60694254076517 18.460367723942895
24.594906079030963 40.48206571510785 30.63445125240077
47.900938458269465 36.361975947492624 93.25666395184346
26.178804359066113 90.01103249717748 91.3066933327585
66.75162359693 25.92701212902255 77.44732675724343
59.464327396766755 21.98328646762071 24.23244567054221
42.44984514566813 25.740132770040866 91.30718050305656
70.35567149881429 20.84868331766619 87.3658643329648
34.070338412760016 61.84965414413112 85.42584904617333
6.34129865879484 59.237268014404194 70.04055121160702
34.17039119026324 14.683973983494305 73.80476707616293
93.67110867462964 93.41859201485295 51.31344594451872
6.2486719629107 66.57887783350786 53.92087736583287
89.52618055280367 75.19232783816037 86.07614184283445
28.938917917887927 45.46942929965097 18.410915261526405
5.664818834343661 67.20047315258303 25.125848857253747
84.45831027012679 92.24794083521576 47.50503558913965
7.60622606145818 17.94765857581647 25.99805941470886
58.28792374577611 34.207428915454095 84.73202891617521
39.27195579101502 37.6878979591331 42.245445119078404
69.97047788703782 20.07834943975798 8.522244698673493
93.91932680308406 6.7278152703442435 21.554025078574533
65.9553361870464 11.999751270027147 62.19797072916341
35.774775725164304 31.692839566247876 58.965300404018855
59.40738535725536 7.425334643122024 87.03709948630942
34.50486560784777 16.812461143893824 62.12058842166484
54.0047959144211 16.442276005034078 61.08099076901577
76.08222064236074 92.18079980620072 72.03820169831586
73.1864851370309 32.74385690610538 79.06713180086116
6.704908026615529 90.5843982322259 72.93280123730298
74.53028843611091 92.1465577035143 7.20585739010376
65.69245744041844 93.90027676089727 59.18622023282281
54.008163924574475 51.913359166195306 64.45418201582174
31.926483977007216 7.475593859134224 46.66642346305614
15.188266782155178 25.858253675226056 81.55068154744706
7.227404786155338 83.13489485288655 7.505862791040954
77.83442578840476 59.53290949430287 65.16205986751314
31.86138568595607 7.9511571590382495 59.065384321216044
82.58959997530866 71.45127332015396 33.50729636695415
57.50043930731367 30.255411365604257 7.236579044551856
86.97705832898842 51.000874323002456 77.7433959159023
66.71208067323198 54.19659264058489 18.932120382839145
15.462556272541718 21.553511540853375 40.583867930127795
44.15396123362399 42.639449517369314 34.55953141410544
18.693034677584887 77.69061537992661 90.51345509633175
22.356555720055137 52.06496945270437 19.203853692232197
62.096517491879695 70.6719803692228 40.360348695113146
81.90371628831144 17.541851207062763 89.5226368542602
33.69332764722436 91.71561090468917 19.420559676428255
42.529825070233635 89.63935249272433 28.005343951699626
45.23846028569616 85.35557579385899 34.61351957937687
39.05446749985661 54.9518088919866 11.908000443798022
13.780802255777402 34.77050401333054 85.94844856340096
92.85708313127236 80.14397788624908 71.37389937945619
92.73350964487682 29.51567470339615 44.041592344503314
26.688044785413446 65.24342921450284 20.0332263547489
73.53236152948551 28.49809490449667 64.24042717318007
5.095345752451023 32.631379331827766 69.69976344031964
89.76756619858342 17.971348510487893 59.498821926428576
58.80265681039264 74.07730542953125 75.80654486884548
70.46985454922763 35.588234308793396 86.54840508170025
15.445910522773076 72.37734802284153 13.89156243263483
68.28492732192291 57.77520258203856 38.21634463613549
7.7596587989965755 91.56375173153127 91.00648050342905
47.74081065502306 18.232360216760483 77.02354256894927
5.35882400561152 94.3336261953837 52.489913174827755
36.90597645703069 83.22235167413511 34.81788570444162
42.810009817693 57.28345915065523 31.56204504306068
54.05470775340197 29.775421070069978 33.716956396145896
94.0525136294437 68.71541796119324 69.35244947928268
17.005914349278875 19.67211523246056 6.905179226544443
81.47616595564814 46.38896822342082 89.87598887427313
[...]
POINT_DATA 2714
SCALARS Diameter double
LOOKUP_TABLE default
7.997152540718159
7.985095811994465
7.982707920009512
7.980974132091211
7.980229390407982
7.980075731937365
7.972975120567835
7.971138045137109
7.966898942741744
7.966400153874573
7.963792292655153
7.963201361964329
7.958072842353289
7.956642152937049
7.94917067352839
7.936251718651895
7.934884381574673
7.922340811283303
7.920261257495215
7.919971682423469
7.919387665175385
7.911036936948796
7.899204520471511
7.896639383719627
7.891077292332785
7.887905838642636
7.886028256716937
7.880957052471488
7.8576699771066
7.856355990546502
7.856177545104562
7.850632096414943
7.844833695912557
7.844385624000033
7.842940365916296
7.826578948459544
7.821838519273055
7.820450067901608
7.813616063734487
7.811239420014804
7.80394168085802
7.8014442758747515
7.797876277417105
7.7892121546821596
7.789131420426299
7.789073435663559
7.782638036719529
7.78160467169486
7.77925796090035
7.7608122941919975
7.754832823751377
7.737066831655066
7.719007042893137
7.714619569419244
7.711950463062474
7.707590223543705
7.695385775104284
7.6935492846393
7.6903310099479345
7.687051541146583
7.680573433259104
7.675674121007361
7.6682328465711995
7.664968946961133
7.664489410668056
7.663334972711937
7.662023746882303
7.66093442831391
7.6524051036281415
7.647553685193779
7.642502080318415
7.632032241468966
7.628389874916977
7.617346148655566
7.611205827966098
7.607978270761265
7.600188330780785
7.5989792835794585
7.597192852265067
7.595473967670446
7.5942415906467735
7.582114249198319
7.577452874631159
7.57570462503879
7.570499274233279
7.566683630189282
7.5615125568510475
7.559914951435977
7.557881287569243
7.555250261837919
7.555210624141088
7.552727270306095
7.5452979006493015
7.543237092134206
7.525957984482502
7.521736343878151
7.515033557575133
7.513540973604392
7.507953457786313
7.502830461269209
7.5021156481920706
7.484061561905274
7.469518243480824
7.469290418840219
7.468071785687762
7.466730345749196
7.463563019462035
7.453861734461376
7.4497782290329955
7.439807640908848
7.423793031712826
7.420673373780973
7.416883973189251
7.412212005864207
7.411578858057169
7.40578417072553
7.403318611692199
7.4014488532630525
7.395458574380203
7.3897878122388905
7.3893384437832985
7.388314132799346
7.380125167929945
7.375410133211414
7.373384017178462
7.36841912196224
7.353960620028101
7.353216395374838
7.345222723954574
7.343662746588073
7.339522936462502
7.333549268540701
7.332926758595839
7.331594554179344
7.328953111950557
7.3195870731635
7.319207752042465
7.311619182014413
7.2990656364511
7.291635107600645
7.286356499735798
7.285066851888438
7.279743275730981
7.2794462857137345
7.277968207025174
7.275272372298597
7.274704578948479
7.273100725727447
7.272766908995913
7.267411799128491
7.266745925868596
7.2641006217602975
7.263406514790858
7.25622962137166
7.255026719711213
7.253959754881543
7.253957609309982
7.237802582037104
7.2353146308055765
7.2341162477568695
7.228783636704513
7.228251942806283
7.225487337623049
7.2253544422080225
7.221849421728894
7.219683958480801
7.217586282365721
7.211923171356819
7.210738339562755
7.208047230351409
7.198945989812238
7.19278267461014
7.19124647257175
7.19004214064674
7.185144017813713
7.184683126395385
7.176089939811954
7.160090895544684
7.159797013824233
7.15888498074973
7.1569673263190055
7.138888628332025
7.136724470747967
7.131675758692296
7.124938953324925
7.124867140644238
7.123372646774478
7.120607192640556
7.119818292072642
7.118278292011592
7.116881076834614
7.115688139450983
7.113271466606947
7.104373329787528
7.095804944937998
7.0916583604912
7.09002473165484
7.089460661357688
7.085663454596788
7.084981851082541
7.084199123453934
7.0834026097974245
7.079218858034983
7.069122263784997
7.064106581425968
7.054293170033537
7.049208882236953
7.036915690738671
7.034608639475299
7.026335541949671
7.0226351991829095
7.020413040433694
7.019452504102351
7.018410992607384
7.0166076684999545
7.012577545246543
7.010994836552459
7.009699980041604
7.009510166909697
7.009043339736341
7.001782129486312
6.9987222453923845
6.996151148237263
6.995421223893316
6.995030033112702
6.992398900175963
6.989215705866627
6.985755174831391
6.984542510014757
6.984517527196118
6.984199771395887
6.978080181200978
6.9762455345119125
6.964443854535783
6.963524757338586
6.963432430202665
6.962593021048613
6.9571838121336835
6.95219767579883
6.940530535593845
6.938856806862317
6.938384903747623
6.93663007463308
6.931661427107507
6.929907330328952
6.928631419838175
6.9259404671305385
6.923500387454663
6.922491969757994
6.920081625379586
6.913214116944438
6.911370004006011
6.909418996783133
6.908814567454898
6.9072994984979355
6.906706718203275
6.900575453378778
6.90006280953298
6.898855574497933
6.891965537638898
6.887220915490867
6.878974041695183
6.876969480770396
6.87554729590354
6.866196797824138
6.8620819314358075
6.859727798314767
6.858210275401158
6.857698180115112
6.857030696510687
6.853059397180654
6.852388642330972
6.849738171073014
6.848593519441527
6.8404644496461255
6.832578388216486
6.831299617508415
6.829926117342666
6.825834716631207
6.823540600440375
6.8229071165015425
6.821046562153579
6.8167471655100895
6.816517307745571
6.813817183601675
6.812937031541791
6.8104531953110135
6.805453078557108
6.805450210638848
6.804240540145693
6.795694924775197
6.7929826097650245
6.781195281913287
6.7811810378190245
6.776588770161547
6.770682106413601
6.768913706248437
6.768812371056589
6.767990413958717
6.766880240888018
6.765002216414592
6.764116624008817
6.763546942654378
6.763258549044031
6.754670697860421
6.7511799612736345
6.748491029240626
6.745888278022682
6.740113122608398
6.738846408118625
6.7381630226222695
6.734539474249555
6.72969641102278
6.729651192568811
6.728676063934095
6.725559311782929
6.725311305186559
6.7242542465760184
6.723696546240389
6.72000984857255
6.718485793040918
6.715969393827222
6.714421610652633
6.71254944246957
6.707850941078003
6.704259183826471
6.699785513251288
6.697175261498374
6.69707790572788
6.696720180348686
6.684741041176061
6.680964656444577
6.6790163907913795
6.6786039809511655
6.675545076388702
6.675327565531546
6.674943560631039
6.673677112825843
6.665912180382132
6.664758550206916
6.664676865387604
6.6630837030307095
6.660952327746695
6.660088960677621
6.656488694078341
6.653285388077539
6.649465741258636
6.647947896246213
6.647726647501158
6.645847721446844
6.644813545093079
6.631824197673578
6.630466353180402
6.630412293463059
6.630108608888002
6.630036273013684
6.628705605542563
6.626599020590633
6.625014244610081
6.620325895432617
6.618863900539842
6.617314660097296
6.613126298914579
6.6100032452606445
6.605789692284431
6.603836512684391
6.602587574775882
6.602157063166131
6.600960638536748
6.600049092190801
6.600041495972872
6.596050151886227
6.595805969786174
6.5947992884575655
6.592007593257106
6.588701950190431
6.587497516661238
6.581603421690911
6.578873003051397
6.578170989523426
6.576507261266669
6.574789684486536
6.5742622314294055
6.57019222398668
6.570033458113439
6.569803205642851
6.568662782172826
6.564301352815513
6.563847517188568
6.5637442671162045
6.552350992649303
6.551302363037222
6.548258778892676
6.5457926436875065
6.538666207633702
6.537873943444712
6.537819932690322
6.536532205638041
6.531627955012001
6.531397874871473
6.530352735179063
6.529103881024739
6.527509386657751
6.526166549463922
6.523168498672884
6.522179517628316
6.521511064578203
6.520475601977552
6.518997445117725
6.518952518492986
6.517181429373659
6.515568537779476
6.512609760865839
6.51209845955715
6.5044260962525025
6.502340492970027
6.49986233587001
6.498139240693343
6.496448221750136
6.495340737419164
6.495264717801782
6.49092518966122
6.489542432255481
6.487898722962961
6.486074948389192
6.484848208711887
6.480966443231172
6.480876160926939
6.480322292617607
6.479032241811406
6.478378506251711
6.4683107384771885
6.465825959942521
6.461207505056626
6.459858702161155
6.450456441816079
6.448182875420182
6.446938082614849
6.443481551125761
6.4431461745135605
6.436599172715431
6.432039998369519
6.431958339446391
6.429928093787264
6.426065472781993
6.425607429090101
6.424747043456619
6.4213162049875185
6.41918518096278
6.413014834036763
6.412902712780629
6.409818208323993
6.404826587181031
6.403357173637763
6.401297635329676
6.380647394224178
6.380101429440043
6.3750962713959
6.37416668343754
6.373820773882627
6.371797552490771
6.368823694770265
6.368095281305477
6.368064456667214
6.367781870729774
6.3657651384703495
6.365049449505279
6.364756951408283
6.363296729365675
6.361453784359928
6.361290550287336
6.356926306336169
6.340735373081968
6.340647472584051
6.339553482748674
6.339441601581522
6.338949757195031
6.338072038504456
6.337675890327909
6.332637118049626
6.332318860592679
6.33090968682665
6.326998374558196
6.326509203916536
6.324621705725125
6.323975513015994
6.323326277706936
6.319513855546471
6.319471657492597
6.311318035085113
6.308425277553382
6.308006952497213
6.304670001846786
6.30430598862473
6.300429501732418
6.2955948745627355
6.293577125624167
6.293504489435243
6.292651470127105
6.291856762068939
6.291565482006968
6.291062468569498
6.2904201403653
6.289842408895229
6.2897654174850155
6.28879175197358
6.287998746884779
6.287861164350757
6.285578595819889
6.28340164149382
6.282085578732107
6.281897638074045
6.275704458571126
6.269634142383667
6.26598781007664
6.263439813369455
6.263156760858256
6.261964061013962
6.259346522202881
6.258785497777857
6.258176594962022
6.256267305263386
6.2511045053196055
6.242751005025613
6.242272373136295
6.241725292605732
6.23963057893639
6.2381156654970225
6.235686316140675
6.233948603899396
6.2298569690928325
6.22722344207538
6.224815473920855
6.2244116073096
6.220641205468013
6.219795807891373
6.214737483710848
6.211688581227386
6.203337556585207
6.201025350418474
6.200691352937816
6.20068562279197
6.191602897567145
6.1900407923050285
6.183737388712722
6.181550647695976
6.177465698771192
6.176074443534087
6.175423380146631
6.173165606288752
6.172694593808393
6.16758399334854
6.165724994675044
6.164849531730878
6.154710476609799
6.154046353989163
6.154001467505687
6.151762301321691
6.1514418435725915
6.149600917187835
6.149587827120573
6.144053863159055
6.1439957032825605
6.143673821020057
6.139438242241465
6.138314673596927
6.135263573220161
6.131357855182146
6.128238586783196
6.127253689114257
6.126693596272003
6.125894692288398
6.1238448357938084
6.12069415135816
6.119626246563892
6.118658223628437
6.116058656419463
6.114550159718472
6.1112561090369475
6.111220696532666
6.110798301072649
6.109504335057917
6.106182995032987
6.105830819174337
6.104805549142663
6.104536832904366
6.1043897358099874
6.10399720783769
6.103455641362903
6.102348211270892
6.099678191914368
6.0986658506139
6.096783076603264
6.095783896155818
6.093795982432567
6.084828745065372
6.084806191289439
6.083429941208019
6.081838161955359
6.0811245111076255
6.080567900075308
6.080308267398726
6.0732967486390885
6.073057974373126
6.070399857089016
6.063535389615791
6.062058854564455
6.054446595294551
6.054433448806816
6.0541450468957425
6.053675295083489
6.053160594066232
6.0529139388015025
6.048367682434329
6.044270177863856
6.044248706187792
6.040162777706994
6.038376691034301
6.038055421716238
6.01701272637821
6.013423156394165
6.008418081938057
6.007202990142721
6.006915415174748
6.005037653254165
6.004391692378635
6.001110632191747
5.995048833605581
5.990368952007175
5.985717752424479
5.985066946564789
5.978997321916272
5.976332028463192
5.973972550614865
5.970668806676529
5.969931348758293
5.967789038918939
5.967297814719425
5.963101037344766
5.962948030015858
5.96260312629898
5.962477613786038
5.961410714595353
5.961246171757081
5.959760054153784
5.957355003974932
5.95561727832377
5.9509822892435995
5.950419050604417
5.948867467641547
5.946295961676417
5.94079148683766
5.940452374195608
5.936503544632045
5.935653694696717
5.934928003379204
5.931696108002348
5.931217678189297
5.92723110258976
5.9242980857614125
5.9228692621451975
5.919549640762028
5.912472192673394
5.9120892230851885
5.910200611871866
5.908988695663963
5.9079539076770935
5.906754976337384
5.900260567997625
5.9002602112565325
5.898091444560699
5.895894491765689
5.89465294657203
5.888280779928484
5.887928016290603
5.887718292951907
5.883004954329784
5.8824036221231655
5.881655385029915
5.879990361842402
5.878775542242818
5.8785436800953885
5.876479279881556
5.874418253917472
5.874063183328895
5.872617741979999
5.871880602133894
5.866732829519288
5.865014834838066
5.864343930859733
5.86402927708019
5.862319411567474
5.858427042391808
5.857874221987468
5.857647105474114
5.857216715565411
5.854539187574283
5.8524166064398715
5.850301335331138
5.848737727772557
5.847760267539071
5.846883125866831
5.846166204106445
5.84164755571597
5.839227535111267
5.838015951860123
5.833782614995101
5.833505395082613
5.831045653978267
5.829033037922833
5.825320909083149
5.823426913186199
5.823115817613112
5.822511995272707
5.817374741080752
5.816723615706398
5.814003741115535
5.812171778668193
5.808712806512647
5.807864293534924
5.804953571235046
5.804213313931891
5.80342136649774
5.803266127058152
5.799908635163978
5.797396166887885
5.793715072001879
5.79255078014541
5.792056746746375
5.7901229054066015
5.788267427946633
5.787668569374755
5.785488178593084
5.778070587037875
5.776868210620982
5.775933842552455
5.774420004619131
5.77161316972493
5.7685040149493325
5.766812583912649
5.7664321741995375
5.764043489212659
5.763380417752961
5.762110572411799
5.76204813403756
5.761112775575202
5.760137072910223
5.755410309822628
5.752112552325536
5.751690201007471
5.749883583312994
5.748101819685154
5.7475338936980425
5.746815609645495
5.745227903435732
5.745044902843093
5.74493180092112
5.744887284789762
5.742818658204171
5.742150008621517
5.741464646575389
5.7410201507612175
5.739277463011178
5.730471370594921
5.729794190897183
5.728566417527412
5.728104631740427
5.726219161124519
5.725043627271826
5.724828114091936
5.724683201224781
5.718783544638765
5.718656801719905
5.714333089745755
5.710893760756438
5.710098947733949
5.70998764085104
5.709802400177973
5.709084531997764
5.707276986557981
5.704684439578435
5.704382516344649
5.702092374209831
5.696040621021462
5.693441929303193
5.690349397180154
5.685215095975751
5.683406322744056
5.6783021846114465
5.675581090740154
5.675296937511935
5.6748080492303545
5.674776867851587
5.674272023967978
5.671782401409381
5.669694394389113
5.6689107475066605
5.666911275147403
5.663044047016833
5.659595003959765
5.659084799887934
5.65754308626219
5.657425612736248
5.656449667493603
5.655506952232537
5.655095962561467
5.654283016491443
5.653073451527629
5.651780796854531
5.65164948986301
5.6488523778548405
5.648319028336543
5.6464625211943975
5.642384753846051
5.639904508009796
5.63856106345757
5.638238994912252
5.635012856851911
5.634591389868609
5.63425260883085
5.629499522694803
5.627694784173962
5.6260032453365305
5.621614609637613
5.619524636706992
5.619240084211082
5.609833720321832
5.609572152107516
5.608825648369364
5.608734838656992
5.608334846756782
5.607397098343667
5.606230541200614
5.602159584783108
5.601015774842795
5.600505556549752
5.595911790372496
5.594492145234362
5.592265223210956
5.590700269134578
5.590598191888525
5.590106860819437
5.587085979647265
5.58678395569152
5.58593687492865
5.583572918165806
5.581855494708155
5.579723408566784
5.574437048478466
5.5739046406145984
5.5714834113992335
5.571362699675275
5.570708731939914
5.56772205333379
5.567379136571863
5.566908234782397
5.562904416430361
5.561172320323427
5.55956875849949
5.55845662799285
5.558407453658818
5.553677184167532
5.552644545538969
5.552203976944479
5.551819332759234
5.550642789908379
5.550517347748173
5.550508043215398
5.548512619248957
5.544367893650416
5.544073170612885
5.542806440166325
5.54163565261755
5.541031371549495
5.535774514106306
5.535612150197232
5.534957715544363
5.532178466574384
5.529150733140684
5.527961033517871
5.526872015156744
5.525255297182921
5.52491119445052
5.523755828797287
5.5211092133750785
5.520353860556798
5.520276979511595
5.519906114991782
5.51753117696545
5.5151178516166945
5.514667683529028
5.51405953705553
5.51397002366214
5.5139674897815425
5.513207801278113
5.511221399957703
5.509533574312553
5.5080607037328955
5.507234566593115
5.505976439300283
5.505700539022524
5.503837932789284
5.5034257485715745
5.503035501727034
5.502088789323599
5.501628616519869
5.501118225854708
5.4985532619846875
5.497131290943497
5.496536849404891
5.4962431991745335
5.493090149673794
5.492828107894658
5.4914273406937655
5.489910942403497
5.489205885182725
5.487280786382086
5.487032662094172
5.48686837929093
5.482447507030079
5.482287483585501
5.48184164332062
5.481348797695295
5.479536956951057
5.477273042289803
5.4755669671447444
5.469518892123602
5.464979181424476
5.464333789453131
5.463316461468799
5.461679897306323
5.461515348613223
5.461282352611772
5.459336119084195
5.458903509294958
5.457109024212761
5.454955861804359
5.452466208479577
5.451491192590589
5.450801224114663
5.450454054443843
5.449976436186482
5.4484326886249335
5.448236249024612
5.447802038600621
5.447195358012512
5.446138630937758
5.445194486535434
5.445091884398153
5.44255465546715
5.441061906719981
5.440894788981227
5.436583368757488
5.4364671843832015
5.4356374217019825
5.4354339831339535
5.433798163127077
5.4320286318850854
5.431266919070511
5.430437456626179
5.429525883936423
5.428122914816017
5.4276493627731455
5.427231243644822
5.426710515480183
5.424902129680248
5.4231554178781725
5.422788523608919
5.422624603279467
5.422444749736844
5.4220133697893065
5.421066502671133
5.4209139234954
5.419471429521702
5.419109931251549
5.418850964148548
5.415045198238562
5.411133316726345
5.411112919330218
5.41057206020917
5.410160014139796
5.407889485214949
5.4064749445990925
5.406122173592616
5.400520028425787
5.395804125841232
5.395164078236463
5.3917891984153385
5.391670638392546
5.390023060150391
5.389984841136424
5.387072008935453
5.3855286117351495
5.385066353616675
5.384976793397107
5.38448828423355
5.384118851907454
5.383546737132358
5.383353467383805
5.383118426112443
5.382837714060949
5.380400303886071
5.375010725679096
5.373710989961056
5.37244356556265
5.369390461270227
5.3661047745742065
5.365352512905414
5.363442822128644
5.361390581663187
5.361218371908153
5.360719279163584
5.360230141643683
5.35991113791712
5.359579886620704
5.359145603909549
5.35746511997656
5.356933307899544
5.354572143460375
5.3538642959020795
5.353241311691992
5.352143557339443
5.349166918575258
5.345618113664346
5.343259058178891
5.339352198950365
5.3384493065215715
5.336801932348989
5.335569152698729
5.334646316135212
5.3341373561066066
5.33347128065481
5.33172817649838
5.329496213535682
5.328407845001407
5.327952838207597
5.327711448986251
5.325354168579136
5.321319643871626
5.3129897449257175
5.311683727863689
5.3090914738722095
5.308253831072281
5.306822262732441
5.306514647981295
5.304982955285173
5.303799809053493
5.301486075811651
5.300704789153784
5.299887820029643
5.299173751900279
5.29829566306874
5.29747306298821
5.2944312085320195
5.294034893351193
5.293218138697988
5.290462869039441
5.290255984378449
5.290032436914587
5.289778726773889
5.288088884418706
5.286664699364755
5.281693626221518
5.28104621762316
5.2801144140739815
5.2793656027473705
5.279167136675235
5.276652535492258
5.276344890399157
5.274674686234656
5.274153084476362
5.269367168023416
5.268962006935451
5.265969544103619
5.264743005460619
5.263744936229673
5.261719163325618
5.2615671006362135
5.260975303789639
5.260783473059372
5.260778952930946
5.260386218288657
5.260197394235298
5.25943705342681
5.259313260387529
5.2590379295422585
5.258427717603004
5.257814891136074
5.256572139998006
5.254352203046061
5.252171312737429
5.252055643584613
5.2508848029099715
5.25072146829387
5.246180617502215
5.245626770540456
5.244856263934891
5.243319416516668
5.239469296247629
5.235689861424845
5.235637602473489
5.235213249020035
5.232546281558017
5.232343513454069
5.2323082766561155
5.231811834095532