# vtk DataFile Version 2.0
Unstructured grid legacy vtk file with point scalar data
ASCII

DATASET UNSTRUCTURED_GRID
POINTS 26 double 
10.21175065178129 6.571593503347504 12.43487423748509
4.765263174638452 11.839420049701781 9.15132179711747
14.071144467584116 12.386402725043846 13.737384132604632
14.613927540546397 9.225380009723068 7.3291401669935246
5.917011228277844 15.682176017210093 14.116083089966597
8.15064529132316 3.9223455526189697 3.996375704888796
9.46108948039224 15.601516890857832 5.996614504259421
4.001900150719079 4.820336939298667 10.951301157002586
7.695746262885569 10.026429997313745 3.5876574806018393
5.678071929992889 9.918976026602651 16.408294389607036
15.70045290860847 16.328270317474608 7.441300911597063
13.789939137192135 4.048526897708819 16.268944308930354
3.6663981707847224 5.633610625452465 6.204652877445003
3.576970263813622 4.519793282780076 15.722614148607327
16.786301182037374 7.134239060311064 13.032566449872972
10.718092629323529 12.20392059174062 9.583293885592573
4.472749189768155 15.09403967043078 3.3402112889612643
10.65914778905002 16.552469674272025 15.397087847485711
16.695702300923386 4.236530017566206 8.960748659685809
13.845813507471215 3.8440510810771853 4.51513299969931
9.826607653266672 12.503779914675347 16.728160976173772
9.437696639013252 8.440311369105828 7.256457702138796
10.784755391628217 15.866988170165595 11.507624977779276
3.5662295269504036 17.015809635622976 8.648031831012602
13.750072660770215 15.76938628822634 3.281801326832942
11.715682162868191 11.840020568227791 3.7526598911907847

POINT_DATA 26
SCALARS Diameter double
LOOKUP_TABLE default
5.989139132990612
5.968218578301423
5.713909527463155
5.551916324579833
5.329328100494411
4.9338280647312756
4.899803566334501
4.4137128680953746
4.1901429045279635
3.9935607949633365
3.9387453237635635
3.897140116949463
3.734746250068191
3.509099239169678
3.4988038787040985
3.4930821410966075
3.4538131512857673
3.3593598345704843
3.35765262134354
3.348141253044978
3.3281237183002577
3.3073125102453043
3.277270696802744
3.2118220836684976
3.16167341733105
3.0306318029595793

SCALARS Material double
LOOKUP_TABLE default
1.0
1.0
1.0
1.0
1.0
1.0
1.0
1.0
1.0
1.0
1.0
1.0
1.0
1.0
1.0
1.0
1.0
1.0
1.0
1.0
1.0
1.0
1.0
1.0
1.0
1.0
