# vtk DataFile Version 2.0
Unstructured grid legacy vtk file with point scalar data
ASCII

DATASET UNSTRUCTURED_GRID
POINTS 4 double 
13.496319994078682 12.300369810964611 18.65704255773359
19.721724800989865 13.951545788284978 17.159676709290753
17.12452865865858 15.34465204733194 12.592904707183873
19.292362037126694 18.897960959367197 17.03326287193586

POINT_DATA 4
SCALARS Diameter double
LOOKUP_TABLE default
3.246190549436537
4.22687920695188
3.9147843969989946
3.9391211265929456

