# vtk DataFile Version 2.0
Unstructured grid legacy vtk file with point scalar data
ASCII

DATASET UNSTRUCTURED_GRID
POINTS 4064 double 
71.26482064509348 38.703227831904634 180.23110625587788
151.3427162662772 25.271230546854007 73.93613496589383
81.07044163246934 38.145127154132176 31.52512634835159
153.26865364809063 34.47978813354956 104.35315878500813
94.21070882732504 10.318386530164926 22.26439888236934
103.57382634109663 17.808173449462807 177.4300881648859
130.34545866826898 10.202492769567169 23.306349912393824
94.06398797967724 13.56729859834503 79.07958293217446
171.51458974191598 10.337071750511756 164.68899878618942
22.15913240725914 29.74655727820109 23.950826440738368
67.50697043215072 22.917793389048235 164.30805583610714
40.089255714609486 23.804395370044315 190.51379657791588
28.76075806853903 15.024718748343425 56.59165614449925
79.51633956943257 21.48820415982083 174.59987813671887
112.9464848668577 13.181866552122871 142.34807897084417
112.8093888318906 13.78730679840912 37.696111622487095
180.78388648292903 13.156460628659694 133.90225309500482
173.94833435938344 28.581581411086056 69.47353472270325
74.63078956883395 20.032347547555833 65.12440057593665
89.15252885530408 29.83673205692856 71.21044877746667
56.11730085463889 29.858360933938684 105.28795664495354
96.68526497805281 14.199172724792701 50.417554862702545
25.058602207252697 15.53373725879477 178.5091629279161
83.38539177572692 9.143760555747413 156.00381231161515
65.71695467033337 12.512029896048608 85.81300173677926
87.18213320329868 15.778406859762967 111.36499697683794
74.90617294159748 29.967517297332517 133.45983356872802
171.180547599706 23.663046830148303 116.18816618341381
55.63111432296235 38.045578806004556 172.2748596759943
61.78728859197418 37.56575544478115 32.88257916579299
130.61693561210404 29.194745658409623 28.46482242177405
21.909916123471266 18.494692384215764 112.44454522189938
151.38147213973255 27.292159121593233 30.228736999855705
24.07627156204672 19.426491972306785 96.61341316054192
18.481892662567443 35.75480270051064 153.10308905292862
164.74707497232123 33.752061993129225 158.74287335799454
123.57662843941542 40.22114580032655 83.30631161091921
45.09526461460777 28.715978294351004 122.78432617700716
50.772138522464296 16.851086112790448 180.5280983810701
42.67726676204622 13.297555774596809 104.19584551528769
77.89391991695999 22.15707766739115 121.18193311183319
48.61804898322017 25.023122462065206 16.833784949770553
179.49666248657445 31.305139386649607 126.91338785108303
35.37870006219869 33.96226839602278 100.39169232633493
138.1227520047932 28.479690316961168 161.06863269062137
49.85936033116534 33.09109079739969 64.12766443976483
12.54170248293269 30.49219831378221 40.51049427592189
15.32988536954127 37.07270648512701 101.77398633666176
183.10827610687844 28.80024015505544 81.19351460989608
73.3602722717302 31.281266743480334 46.906997797892544
136.36088458142214 41.537273172695876 74.582235556091
148.0264039245836 8.772914930559022 181.2975208118991
119.81368310110038 36.87463625702378 21.627328683565036
165.30845593180993 9.522753082012493 144.61448012793787
69.61220359381258 39.019948050671395 61.92494640800838
65.55661064192869 35.06954405586769 151.66368117388288
113.03225618587177 34.51730468324599 165.69203060740094
163.56396064432948 26.074876804078613 43.9763866824073
18.10581052016599 10.343425934202232 150.90647565895597
122.57469575673582 16.189876269135492 110.37044463807906
94.60796789795538 33.95211269154594 148.87479268270909
44.16860404166756 14.542868608403575 75.5102829730128
99.17434432441138 23.12064201839901 163.9831173722313
26.201730785258142 35.825593383891075 50.10882566733295
130.38742279970512 36.77140840533375 128.91964266993062
184.3332783846866 9.680329535504963 150.53959550759492
38.48054963740004 27.64797849477005 41.36378574620994
118.16086647280926 35.322358486859315 114.52678569992021
10.659197344706609 24.502811165491533 73.34104201536998
169.57496505475206 40.63473650561432 48.32539882256077
11.46052724897982 19.017975780054716 51.158654001013446
52.890445218203624 18.497343319908033 46.904594656993154
144.42836718543853 32.81501683700685 51.40684005314152
8.096439226440092 39.66330975159238 181.96136028585545
181.93678617598698 34.00064097429649 51.18382825694594
190.11792764284127 14.906076464321895 52.24930887571514
103.05963108739004 31.54013887589177 44.67777812545728
144.9312923433225 8.759927666669958 86.78531555869534
107.00312377922525 17.25879417372994 115.16848394434003
96.74397186833413 32.48668800432193 107.47231924074303
146.0723294515128 30.96283914153216 14.639017147796633
31.496054992524765 22.31377520562222 160.21698239263887
119.86250314160546 27.47212697218402 151.94487779684076
63.779297667663215 30.78284560805563 81.47813567871174
108.26200295039212 11.179353511713744 11.097563725213986
122.22180964374355 38.978817808308094 38.00461154085053
182.46962483574453 12.683999794615533 190.85797184066166
135.9715383554627 17.310411366659785 41.62175810930144
126.42940671175263 18.454887550462345 73.90827011690966
99.03407484638181 13.786840358596564 138.30537526779372
51.56422583211169 7.991463972679959 12.191441675331028
25.043193784760177 24.47402107287373 147.4377818821854
59.550815761075796 15.169384083521027 103.96113044998366
163.33965621782528 17.47188130537138 10.515838436039262
129.26866865774977 19.366722493526154 9.380189968190937
31.000814871683485 37.20471877009591 114.10971866611642
161.35077309317398 24.231702256507358 147.10449213813553
112.70599423603434 37.06917311131086 145.94895444700663
124.40103564371134 18.10676270170779 126.75652203497566
51.87705514188586 13.149900533934119 87.64444772836012
144.8953642677472 29.554857024220357 122.63055431508752
82.93711079313483 20.357997121058748 139.85404189155597
108.0689297271235 34.15013449289622 94.77320330236459
56.16262144929391 13.020433781888666 152.75503586083371
164.35326191916687 34.0069123209755 79.9217109677115
75.151782675193 9.636004878838536 130.3010302648449
76.93705525864063 35.57445906537714 11.448136636936265
48.15209150097427 41.68338816093023 25.169755706733945
165.16239391776722 9.060522604000704 82.67033943124173
174.9368472789835 18.463936725161577 37.64231659071737
124.50867168107128 10.120967083132026 149.81533457679578
66.2576608718804 22.954176429093103 95.76767456276636
103.88617937523486 32.61523671854199 14.42003486858353
163.44617554408748 35.080126705997465 134.06028467922508
52.33679806029174 13.006968153209993 133.02827071418452
182.78381800563406 21.372213586624696 20.511729889598
51.47866092513157 40.527677877936235 89.20900048534084
88.15895974367925 31.17185588215458 19.849906897006587
88.00017342412559 37.831522327997426 59.88559128806469
178.52046812274898 26.58075805829171 148.44915961785705
29.77703549576763 7.519123596372121 161.11979464280654
107.01303957761176 39.79953902180646 67.1530628558216
17.381141641850117 11.808389141645641 86.30134602946654
133.24365100480657 33.867794790729846 97.97272710083156
66.55309009705192 41.61293571766106 19.972880629816746
41.934573804790254 25.94902745548416 89.9506607948365
175.7068143119697 26.53097917505293 183.9469475107756
40.50676683805981 37.19474210327094 74.83222079712579
10.114663719587218 19.308831571801345 183.10224409939832
72.96851940818999 8.816025015612263 24.648079842359017
13.923751879280985 9.639415925532774 61.40967934446039
80.20732870755558 31.21617204336164 190.91399950013465
25.181218858069993 41.43387900515668 9.735637448210255
74.42798958458239 20.07125883967616 15.072438903418028
36.90197348333551 41.9256282990863 127.39672995337018
136.62035873473064 8.258045877208257 7.805582493001034
63.33484749556091 18.849854220464415 25.10852533493114
14.205548659464299 32.22602754900594 9.786777358583132
180.48722434405153 29.842610844210988 29.546954091423366
82.48239135644039 43.45519078836791 74.67823679227249
127.05527812769104 33.24003916519769 179.85897135951612
139.96339130881145 18.796147070238067 29.39416246934001
192.31342389478664 7.97451443251637 28.76408381143467
36.1149895038435 30.941329485815675 177.25077822939122
8.220923824786668 28.21213368047201 117.48120200579602
157.76725694694247 41.06894066779503 118.18104206831472
150.1023084452253 18.064524975025535 55.46980169946901
35.67643358292821 31.786349042750132 20.085052320881516
7.185899265647793 9.782989702916678 103.63511350055397
134.3383294542335 43.297741455665914 178.6125671478604
193.0300183098471 34.26039393214963 71.75402232822967
25.685102075685055 8.897986356156187 41.37430424754466
80.8508059740612 33.01342128948018 147.93368102568553
16.805907215743545 42.53366570610172 136.2197742251432
77.06260953446186 9.41684070365721 52.92882536381166
107.03486235917497 28.39797965508964 187.2299558404108
94.72007658297558 31.195272117393806 87.46548443759218
190.47219988622422 12.491212428165197 10.34863979785729
93.49465551082022 25.576884601746873 186.86780615241778
96.63091450184777 41.18989146492192 162.0472292148068
10.304278607478972 22.078610019873103 86.00436399104758
122.27094320007065 24.75731657385115 47.70898384235049
27.64617933399669 17.3402157893308 192.92013293858224
179.54626905553022 41.92221755883453 158.72289691382736
42.07148688496904 9.836881587858896 52.30005003490325
148.32867846340696 12.00692925695166 100.30471077493998
178.93185351068522 30.329818690600543 10.001028629219826
118.60827308047188 18.16153837866774 23.297532501398145
141.34696714314032 41.94711887945994 91.3790154296163
120.58331224021467 33.33532960114284 97.35367803750943
135.9974066344714 22.46897322199557 143.07191500471538
150.3199821051283 31.278699589765203 190.23132178287352
91.57897925748212 13.396046243889863 127.73831844211047
152.99367152008824 38.59748630180218 86.40111308181562
167.16244677315385 24.146533615916347 94.37285360652685
118.74662227592938 26.69893741840966 63.20634664862503
19.80158290260379 31.00117482763164 174.78091190215852
190.7380533943509 26.010382545382875 105.75703796197958
[...]
POINT_DATA 4064
SCALARS Diameter double
LOOKUP_TABLE default
14.915418831987633
14.836234691439996
14.762030856162351
14.72473223227264
14.69999657468898
14.684974380150589
14.675113373931628
14.615694874946072
14.614964841910576
14.58806980865582
14.585310959348147
14.574123400081263
14.525457313212055
14.47854138448568
14.456252943274801
14.447847795904535
14.403982733977266
14.342558873309017
14.339433684760298
14.309265718084957
14.256081487757333
14.173762505163907
14.16980618979261
14.084077213258059
14.050791819609861
13.993397993756329
13.992392898086047
13.946557093499242
13.928590480059661
13.855910746192123
13.853436345621816
13.7994910103726
13.696727266739272
13.653990272896928
13.626137125206126
13.580355990197944
13.550443758601887
13.50725427646433
13.497328565561846
13.47171876421244
13.458234251596537
13.457460644296269
13.449700361322124
13.307761534959498
13.291579031853464
13.282347821768004
13.257472240137147
13.254347637346324
13.238011879591298
13.229552809132317
13.202184044640715
13.13993332199444
13.09821598317615
13.065446686117705
13.064842447878512
13.027030218082064
13.0107836410409
13.009827912481803
12.972310036214044
12.95907169936858
12.945609072236806
12.916735793585362
12.89161790570574
12.885068890534052
12.852568694841457
12.760045169062998
12.734389441539108
12.725705087135893
12.711470850666315
12.650397140396187
12.649124428467186
12.592444445137655
12.567119621579884
12.535980930506051
12.53509470746543
12.531949542791535
12.520545746695342
12.516303835384951
12.514828977441903
12.509552506652739
12.48730078842022
12.446423407833988
12.435038598694195
12.419861739822908
12.393179843121372
12.38643879210894
12.374364513126311
12.34976727205789
12.341377162511993
12.323176364134536
12.31174711412482
12.268967788338283
12.258785428345764
12.242884843999397
12.242711224833823
12.24173777716334
12.239116908952472
12.212863917100115
12.20576816317298
12.196990853024763
12.192149706608099
12.181439902246158
12.160489699311446
12.160189725766749
12.131112887389765
12.128181384052477
12.050013282937789
12.044971448530433
12.03915236917638
11.972523128538022
11.960456669651132
11.950786153142385
11.919069277690413
11.906752341344813
11.884224506699162
11.867807180471793
11.858406248846483
11.840222315363368
11.837019560655259
11.831704526249668
11.825243497937947
11.80627757205145
11.797640445965136
11.774544501139177
11.757988617542715
11.756498711309279
11.734328212304158
11.725941682130983
11.6816796372208
11.681658147273913
11.608307875233901
11.606710011435458
11.601013214363379
11.60054512031763
11.593818968132648
11.588852481046475
11.5884218971005
11.567448786213136
11.525611991882188
11.510674828998251
11.495767554368836
11.4784200246072
11.46689506777779
11.466025226737072
11.456894175831186
11.445927816641753
11.440887637608466
11.437254396083791
11.425289136836767
11.411938167905271
11.400612541440136
11.380199511504367
11.372047185432699
11.369034238241222
11.364542079508357
11.362036521382802
11.334963916051104
11.321670851722214
11.272959605307882
11.261951817952388
11.247943000720413
11.19628153498195
11.193079261484646
11.1556109059517
11.136220004786223
11.104134115123898
11.04522325456218
11.035486944595203
11.023478423046589
11.017682146965093
11.000354067849477
10.969151594746469
10.967941499579727
10.964900224327657
10.964361748452614
10.963201235148818
10.94872086124193
10.93287046593385
10.928319243092018
10.921929380727994
10.918073062160868
10.877361788551719
10.859977599114277
10.852962475899556
10.843483470117299
10.837945592604175
10.836856048042764
10.83054209272185
10.816888292439636
10.798681475565454
10.77549930804206
10.756532322990184
10.74631260821845
10.743677627304399
10.733614670229128
10.732500627869504
10.718474855708157
10.686848684164481
10.68013521411098
10.665133406971934
10.663970460091335
10.65173572121223
10.648129944542305
10.640853971903192
10.620345212689553
10.599915093201115
10.597475697683079
10.594249695397673
10.578226988422175
10.576508843034198
10.574509882929899
10.556276189428178
10.55074510805214
10.514952132802868
10.513620990762684
10.51096655093874
10.477802127118975
10.476699411018242
10.469596586161927
10.46672436678233
10.465869329236511
10.455312751754725
10.440394949375502
10.426247882689577
10.3989918432434
10.398775320718526
10.394954264835158
10.39436774569117
10.376790827172663
10.326287544208649
10.325435559070849
10.311913026544316
10.277912922756729
10.258020641279385
10.252865093782024
10.252805738360381
10.248366016603901
10.243252173133031
10.24018049095016
10.22952208796534
10.215363182132922
10.208313166167857
10.196577928382418
10.14992886300318
10.14445685587135
10.138425217118437
10.137177047513754
10.136239518405157
10.126635411865808
10.12515764451477
10.125023085114494
10.122278461368175
10.121832459480943
10.118419512098427
10.116405694466646
10.0890918158309
10.084231426427635
10.06175587006855
10.056532228121121
10.056157742952198
10.052674830006515
10.049419460166009
10.043397449003969
10.037744983156923
10.035815230538473
10.025384909524774
10.014508606173198
10.006166265266287
10.00199468546134
10.001177903068513
9.997325607677102
9.985735077073835
9.97927351011591
9.975122435935113
9.972618938787079
9.971716478303106
9.922560702358172
9.91817101544678
9.912649883446914
9.908028645153731
9.903801743549819
9.883310848130975
9.865245751988393
9.84733342045088
9.827415337657662
9.817317795067746
9.81536439464549
9.813063580806167
9.812189634082811
9.799828589667486
9.798689807774966
9.796757007900968
9.795926804877343
9.790829324755071
9.782609830956632
9.777919575682366
9.724810214036767
9.714310298963577
9.711039643300872
9.70838100051069
9.707424131776056
9.706809073101086
9.69836827648071
9.693661680313694
9.692755518636497
9.687765604410405
9.67422860968709
9.666894565020455
9.65503476323083
9.649485101049109
9.640666735684727
9.625163136688824
9.60791640072891
9.602434011370667
9.592873988157503
9.588866052937847
9.572804647221925
9.569267583067244
9.56161627915501
9.541332387915334
9.539653280075832
9.532407875994537
9.530923203717348
9.507325504335839
9.497876130637541
9.487183189444327
9.478377983112507
9.47030470179505
9.470143707729001
9.445761380974032
9.440668149721201
9.435615027457809
9.424062406729663
9.423480550193961
9.422183509436163
9.41318722401075
9.399132387361957
9.392328728041896
9.39107316972871
9.38831205414102
9.379737791268658
9.374370234600965
9.371186532637099
9.368836084067004
9.368455858252686
9.364572690716493
9.356805630566564
9.347768675830661
9.336957757814004
9.317125231454341
9.315734859681672
9.307343482386658
9.300761414273584
9.288073076758016
9.272879820811633
9.271963583620954
9.268396086561085
9.264763381099515
9.263430063886064
9.256494875406217
9.25417441825581
9.247745829881703
9.237029522734712
9.236470398420215
9.216773874107588
9.210776000770622
9.205844864662067
9.204505362958033
9.195803942819525
9.183091209786927
9.172009113738849
9.17054039719227
9.168370222467281
9.16665306948628
9.152355265647891
9.136525586166892
9.135363829939434
9.135092375886071
9.128018402452911
9.108706122715883
9.106639076335656
9.098323509234712
9.09046814169111
9.07980447107189
9.063129288498386
9.062116536564597
9.046779283693928
9.023609351084453
9.022574460314981
9.011098895762673
9.008479170087472
9.000553448588162
8.99650747227493
8.990302196101721
8.989594346039945
8.985572383040163
8.97973894029489
8.977723127938095
8.976306193248742
8.970514688935275
8.968654783922714
8.96573132335429
8.947604445179337
8.945717885542962
8.937617060029202
8.936782583699534
8.932151969340564
8.922450011560446
8.916222033766566
8.910288910640684
8.899571644184208
8.89704518545064
8.894712193684176
8.890539091655345
8.871726387343605
8.860088043999118
8.855181369505884
8.852100122802383
8.847602269353878
8.846763749071384
8.833946900867984
8.825565513686833
8.823872593394091
8.82117924901834
8.814818403689948
8.810710346954114
8.807685925748913
8.79201027942117
8.784721608017465
8.784108665992624
8.7833979699509
8.76892213614631
8.756565601906463
8.751234752946315
8.75100651712227
8.73785043326755
8.729254700444896
8.716439738888413
8.716002124976576
8.709138591120793
8.698156690545172
8.687376846789908
8.68214889503985
8.680260392737425
8.671014111802046
8.67009960480055
8.667632542159714
8.665292095247692
8.664323075364303
8.659089922268917
8.657644290576844
8.649510160963436
8.648761326012835
8.638259548236421
8.631926081360659
8.618191627497351
8.616653871602512
8.603266600461769
8.600808893876083
8.599543139979895
8.591644573450587
8.587978466498042
8.587222322553103
8.582707343777912
8.571918478057187
8.563704797636513
8.56325497855809
8.55523871072747
8.554552499322428
8.5486307081919
8.548272180871532
8.545533446416114
8.534487930195148
8.534328711187841
8.532921135686074
8.530186967427762
8.527282248787644
8.506602379076682
8.505115818805233
8.502454456845175
8.502381803779159
8.484165188790023
8.483760606039631
8.481120161516035
8.473533354076826
8.47306394144776
8.465068903903683
8.464095504122152
8.463396490265884
8.461364569115025
8.458372537217079
8.45205452943146
8.451915068102295
8.45171970498204
8.451242593067459
8.45023198373116
8.447856907074597
8.440650395866527
8.43362114736598
8.432228583483496
8.430965439697244
8.428493280320769
8.41638958496337
8.409216607868562
8.406166794533949
8.404259131854221
8.399400583878865
8.397718927855019
8.397239152470071
8.390963140914083
8.388363814686024
8.386981981533323
8.379015254333487
8.374395700087655
8.373338356161936
8.369219469757935
8.361581039798203
8.3610536957931
8.359309045610766
8.347340271571115
8.347137194174751
8.342132557134356
8.341481014133702
8.339386266656776
8.328702271483891
8.32793910248246
8.32589878956075
8.307298943637681
8.305350611932235
8.30446418655812
8.302139648032249
8.301420390664225
8.29798140360968
8.297892390204526
8.292943688305805
8.28913849803549
8.279467523633242
8.274799505105817
8.26943226550596
8.267569198265214
8.264653904928851
8.258214952431995
8.257844696651084
8.253093511877701
8.248782580123455
8.245112156440943
8.236204307807576
8.235103678314664
8.221386918138254
8.219728937752913
8.219486530977903
8.219395358505436
8.218499719622097
8.216100654605915
8.209957607100508
8.209853426177908
8.208972304179419
8.203707741420455
8.200673269604378
8.19531875669544
8.192678424421441
8.190993332255468
8.187524207918672
8.185799645580769
8.182400728360973
8.180897484192416
8.176914140630165
8.172249337070422
8.170367614295799
8.166601809785918
8.165543593282933
8.164753704587827
8.152456031912406
8.140275205228768
8.139522744323743
8.130815205104836
8.129981810305408
8.123864630257268
8.101215672456854
8.097672188689575
8.09527423416707
8.091267502940173
8.077612616244515
8.075018917064638
8.070668672316115
8.06145430798732
8.050862281644214
8.047192548332577
8.044617402943649
8.039655172251335
8.033054306562267
8.025575220605182
8.01177163727309
8.011728053245598
7.997414515918782
7.9958032636417515
7.993240741478566
7.988721464648568
7.987561944531595
7.978323642938984
7.978033885753132
7.976117370428943
7.975109614227091
7.968176838194322
7.966360590230605
7.959251637697997
7.958756013520009
7.947595295487159
7.942580287180731
7.941626370636193
7.94117715327113
7.934240228894088
7.928110532304856
7.927771597798464
7.927752842405978
7.925325192989569
7.9226068148563975
7.917819928648657
7.915490224804628
7.910735387260482
7.90171000938091
7.895201065488436
7.894882659604333
7.893825412127263
7.881200672890236
7.878708000930104
7.878218606994008
7.877107074995201
7.866840993981053
7.864550814984974
7.864277517344932
7.860729396396542
7.850334227380172
7.844597966206561
7.842063238685645
7.840035004306188
7.839564459789768
7.838098758565607
7.830575420056273
7.830254541140906
7.813781064356972
7.812968914259842
7.8095393780040405
7.8023754126975025
7.800522025382237
7.797217911834558
7.794389356403657
7.784636966389913
7.780040766666378
7.780014869650174
7.779100204075418
7.776678562781767
7.773948302346699
7.77378060359589
7.770015212604126
7.75952099822903
7.751403021505168
7.750758162849323
7.7465628193681955
7.732711944733452
7.716933303037662
7.714381839699772
7.711587877159753
7.695940289389828
7.690499898034373
7.68019277886281
7.679006833592227
7.665801853353727
7.665627272357587
7.6596747502979685
7.65852129128234
7.657413922703474
7.653451548033003
7.652273625436181
7.6505717099256305
7.64774172575905
7.646521376548612
7.64582738866638
7.636319694682378
7.635665821661477
7.634040035311502
7.632780431474233
7.631643264421986
7.628869765134117
7.627786080409667
7.625260734041685
7.618563487498912
7.618078755905838
7.6112926273253
7.610939354282125
7.608654994870061
7.607248463475891
7.602970806182799
7.601705800607369
7.595358377082312
7.588361253968329
7.585328948136205
7.584644969757523
7.583607352304635
7.579915126174438
7.578875623596155
7.577411728326495
7.576033546514245
7.570856791313682
7.568815092588685
7.567005386126669
7.557081296955576
7.555377979562062
7.553500833348134
7.550854889267496
7.5499962934702936
7.54749108428718
7.541672736329444
7.536778827182527
7.534556301524171
7.529387146662495
7.521766500986399
7.521061264029879
7.519627125372075
7.512788077649251
7.509137506653301
7.508064328512507
7.505246677834667
7.50118679023295
7.499169434770664
7.498210530611929
7.489670479824446
7.483547044409149
7.481865555105572
7.476571043299209
7.476237028534874
7.476184394804511
7.47347461989092
7.470932684620599
7.470898774868185
7.470829386078825
7.468541720511924
7.46556237542295
7.463994016642541
7.46003676496822
7.45846912267846
7.458116744535614
7.454998752628928
7.454298420281186
7.447071735714297
7.445480675788562
7.44082596759669
7.432211258125431
7.429724175443588
7.422535751586461
7.409855184552324
7.409017707870397
7.407029814362883
7.403174312448258
7.399380051682394
7.394848009547481
7.38262641448748
7.378250688304763
7.378105548039879
7.376971118330231
7.3684477208147205
7.3681817648967085
7.363470894839225
7.36292692535441
7.357765828923619
7.353238643324106
7.345070699060147
7.344246904392942
7.339926306331313
7.337931310131881
7.336279549756291
7.332582074596431
7.32792691504006
7.327007234902469
7.326756715125797
7.32328926335799
7.323177357387264
7.319690059653973
7.316901732894168
7.314717370289578
7.3129423903552855
7.3052757708112654
7.3049384939746265
7.302975910240319
7.301969245246339
7.300339888459027
7.296795978454394
7.29294755161511
7.284077804177858
7.278944917841757
7.277025833492484
7.270704888287509
7.2667053867261835
7.261889837517324
7.261358861462901
7.261275456785045
7.259273705217567
7.257725236705317
7.253642305656101
7.248371272157024
7.244014853182427
7.242904183890509
7.242291882995839
7.241955079183632
7.237815176188253
7.229515880444945
7.221628536749468
7.221420272317215
7.220503771748592
7.2197914072337355
7.219043763790011
7.215956557650399
7.2128168434442905
7.209595078273362
7.207733286365463
7.201875136758126
7.195438915634535
7.1947750787144695
7.1905424116570105
7.190158724801259
7.189756125512604
7.18959678932863
7.1868424224480405
7.181594043752187
7.179861118591508
7.177654966947663
7.1763365701557085
7.175841432763142
7.160658509932486
7.158463949038717
7.158131325950168
7.1578898598985825
7.154967035838313
7.154890613551558
7.153373236509759
7.144999589542663
7.142043345456338
7.140059403838192
7.124890772994244
7.124612308626765
7.123714773968468
7.123212922512829
7.117036877290313
7.115520658673171
7.113547837216629
7.112519998232372
7.110950132954589
7.10972378913107
7.106778354101843
7.104654966496687
7.10165267154634
7.100973514405423
7.098541113485839
7.097657253122579
7.0958141613836325
7.094829846757058
7.09027469228747
7.086904753325954
7.086463615789482
7.085796789925272
7.084616112064441
7.076155919603594
7.076117273526249
7.0701201277871535
7.068560849546019
7.063522414946905
7.061410454785814
7.05829286789319
7.05211302656968
7.051539008657647
7.048812554296997
7.048341453053353
7.040048214089052
7.0377927815636685
7.037222848150454
7.035678708735754
7.035635386918852
7.031649658995423
7.0283793971343265
7.027564339986401
7.021379163427678
7.019540593195756
7.01281416202956
7.009979268288899
7.00178899732638
6.999211281228322
6.998545027179152
6.994787610844304
6.990532971027693
6.97898241553243
6.977452958898184
6.9772037371376
6.9752259958750695
6.971816935823781
6.971667567581044
6.969898004397593
6.964494260333735
6.96396453636681
6.963649143216537
6.961897069819707
6.954278205477431
6.952192983448574
6.9521515682676185
6.94568064232165
6.94239446943328
6.941646850006958
6.938578854013731
6.932674666770774
6.932206856880337
6.927004551938307
6.915819630267603
6.9141750316118955
6.910877762433576
6.904764936437859
6.904462502381108
6.903767942395094
6.902809775360518
6.901435414313077
6.892246960804918
6.8860630596896595
6.882930885075264
6.879934835632159
6.87601352939475
6.8756733037936275
6.872192660217614
6.8716464012842
6.865108669820742
6.861144481528512
6.857802235950897
6.844381070793677
6.840599528831072
6.835904388306312
6.833467537748953
6.8327460956159705
6.8320597121513735
6.826431537118203
6.8218469522881815
6.809900656810004
6.80778644609742
6.801596485615847
6.798137130039118
6.79509498436354
6.79391990677624
6.791326904445915
6.788605572341619
6.786771593498107
6.782776696085965
6.781863712998886
6.780920959035421
6.780765395835545
6.779522713387048
6.776264746361123
6.7757098073837785
6.774203358367036
6.773171470538475
6.7722982346448966
6.771200779805444
6.761294444956921
6.760385640553907
6.757885596810158
6.753410591866429
6.749525377841372
6.74882397764246
6.743940752752706
6.739521657991266
6.73031604704998
6.7292581082530045
6.72125378119458
6.720767939345901
6.720600729063762
6.715952016217439
6.712461382083936
6.710250321024349
6.709097404956302
6.707337398019743
6.70510949128339
6.704984321733569
6.700539549764671
6.700350173737523
6.699791564469636
6.699012914985068
6.6981030832439865
6.6867752393963515
6.683309697600155
6.682604898879048
6.680604795774639
6.679959334889974
6.679565574343845
6.678877055996477
6.677001951696591
6.6765527219195695
6.675882584560413
6.673173856191904
6.664667265151599
6.661406463227289
6.6607616852846405
6.655933832051248
6.65485490151709
6.648311617911798
6.645284952792175
6.637892351106039
6.63740981858285
6.634113707314303
6.633559453675956
6.633025186334344
6.629012274017326
6.624434025438965
6.623694496667713
6.623015111761733
6.622741628592409
6.6189960464493005
6.618808694171938
6.614289175787805
6.613330558161208
6.611348820490128
6.608449976906269
6.60840217133556
6.606541145239548
6.599910687542492
6.5998976092449535
6.596763275325888
6.593152607087608
6.592798246832034
6.590535847550141
6.589775512036961
6.587341341324004
6.587285199199172
6.586342205730551
6.585708738648575
6.5852781984282585
6.58253056250771
6.580810121280985
6.577972923709461
6.575263712621551
6.575054165759091
6.572406518844021
6.571371242934019
6.570407221127936
6.565750110757287
6.564230408112232
6.552862058107178
6.551470725854457
6.551291170952214
6.551227219820029
6.548269819546583
6.540196102598986
6.539979560793945
6.528660297716676
6.526775283428184
6.522641458057343
6.520738819085662
6.519009978991476
6.518601573351248
6.509685040591035
6.506204304190911
6.505604950640994
6.5053358378950765
6.5020404687477855
6.500428803640293
6.497291903721841
6.495761385665028
6.492989876734838
6.489863471982612
6.480953098844364
6.4805003577681255
6.47978271071109
6.477523445252173
6.476183750692078
6.475609744245575
6.474345775605811
6.473585153785585
6.472162042567751
6.471959818890943
6.468154112799093
6.468078966826673
6.458415281045594
6.456583930138263
6.45378799997092
6.453085803757658
6.452352701425484
6.450424932242635
6.444115269267222
6.443829708626454
6.441226953350203
6.437377819706056
6.4372323544945065
6.436939375345305
6.434470994581878
6.433133258464475
6.433104634964439
6.429667684284208
6.4288808593543765
6.428034339706474
6.423749139155575
6.422319086695881
6.421499882877745
6.420098807075476
6.418149170762371
6.4179328047943915